[Molden Format]

[FREQ]
         464.9051447977
         464.9084951636
         689.4689012671
         689.4707489252
         783.0471979240
         806.3068283640
         992.2801246835
         992.2830749918
        1087.7868843916
        1138.1564046105
        1146.5439807068
        1146.5471870574
        1150.6087592110
        1150.6168075078
        1192.3277677736
        1270.5306875055
        1319.7814198413
        1319.7841055492
        1384.4377712656
        1538.5267336900
        1661.9141320196
        1661.9167896794
        1795.2778017069
        1795.2868790430
        3346.6370844418
        3357.7213337329
        3357.7283243109
        3377.7057444220
        3377.7121089991
        3392.8164385246

[FR-COORD]
C         -2.2819194890       -1.2949881776       -0.0000209300
C         -2.2624601469        1.3286980987        0.0001017858
C         -0.0194586112       -2.6236877172       -0.0000266759
C          0.0194624837        2.6236873928       -0.0000724106
C          2.2624585835       -1.3286995042       -0.0000123322
C          2.2819180036        1.2949897803        0.0000265783
H         -4.0457629230       -2.2959717531       -0.0000241098
H         -4.0112600471        2.3557385218        0.0001207366
H         -0.0345060292       -4.6517109808       -0.0000431924
H          0.0344979458        4.6517101973       -0.0000344670
H          4.0112592021       -2.3557370012       -0.0000196876
H          4.0457620450        2.2959725320        0.0000481645

[FR-NORM-COORD]
vibration 1
           0.0000008388        0.0000071048       -0.1946245561
           0.0000073264       -0.0000057940        0.2042533149
          -0.0000006579        0.0000017872       -0.0096290137
          -0.0000078472       -0.0000023361       -0.0096278746
          -0.0000002309       -0.0000017821        0.2042531349
           0.0000006537        0.0000006295       -0.1946245710
          -0.0000019108        0.0000126230       -0.4469695557
           0.0000103515       -0.0000071278        0.4690800606
          -0.0000028019        0.0000019837       -0.0221116769
          -0.0000074122       -0.0000022176       -0.0221159626
          -0.0000010725       -0.0000040775        0.4690832648
           0.0000018578        0.0000034680       -0.4469713032
vibration 2
          -0.0000020120       -0.0000007431       -0.1234842987
          -0.0000104273       -0.0000023311       -0.1068071907
           0.0000003430       -0.0000033374        0.2302910378
           0.0000031845        0.0000085599        0.2302910524
           0.0000018079       -0.0000007042       -0.1068076541
           0.0000067625       -0.0000005263       -0.1234849034
          -0.0000020357       -0.0000005598       -0.2835889628
          -0.0000132550       -0.0000036013       -0.2452887924
           0.0000010157       -0.0000064184        0.5288868384
           0.0000066474        0.0000042966        0.5288875282
           0.0000013293       -0.0000012099       -0.2452867697
           0.0000103635       -0.0000034346       -0.2835865438
vibration 3
          -0.2251836681       -0.2238766093       -0.0000042953
           0.2384217363       -0.2252890801       -0.0000085511
          -0.1571869081       -0.0121698230       -0.0000007446
           0.1571868378        0.0121705142       -0.0000021009
          -0.2384221665        0.2252887582        0.0000056390
           0.2251842590        0.2238764180        0.0000017807
          -0.3232316530       -0.0506586519        0.0000291285
           0.3269103957       -0.0741601823        0.0000167981
           0.2169723370       -0.0149363055        0.0000162307
          -0.2169729419        0.0149350998        0.0000186517
          -0.3269110468        0.0741589915        0.0000094833
           0.3232318327        0.0506589302        0.0000082029
vibration 4
          -0.2329334973        0.0209038274        0.0000026942
          -0.2162354618       -0.0341414521        0.0000053985
          -0.0031150931        0.3614657496       -0.0000008573
           0.0031154903       -0.3614656474        0.0000050632
           0.2162352432        0.0341413363        0.0000000166
           0.2329332383       -0.0209037576        0.0000029455
          -0.0762874555       -0.2548431681       -0.0000274658
          -0.0485388539        0.2511645972       -0.0000308252
           0.0106883392        0.3611032174       -0.0000224841
          -0.0106869902       -0.3611032443       -0.0000357570
           0.0485386329       -0.2511655507       -0.0000292625
           0.0762872843        0.2548434796       -0.0000359123
vibration 5
          -0.0000058998        0.0000008445       -0.0341649542
          -0.0000004870       -0.0000016963       -0.0341668059
           0.0000013881        0.0000087744       -0.0341690136
          -0.0000016392        0.0000007428       -0.0341670191
           0.0000078620       -0.0000022958       -0.0341648710
          -0.0000020677       -0.0000046599       -0.0341670418
           0.0000045058       -0.0000189204        0.4068174629
           0.0000097964        0.0000045687        0.4068128837
          -0.0000037949        0.0000045495        0.4068139187
           0.0000100593       -0.0000054201        0.4068196627
           0.0000033340       -0.0000119084        0.4068197036
          -0.0000138544        0.0000067737        0.4068127433
vibration 6
           0.0000008807       -0.0000075570        0.1641461450
          -0.0000119862        0.0000037588       -0.1641449854
           0.0000015033        0.0000006470       -0.1641434072
           0.0000036049        0.0000101837        0.1641445142
          -0.0000010708       -0.0000034041        0.1641459138
           0.0000060440       -0.0000015458       -0.1641447103
           0.0000064429       -0.0000178504        0.3737862105
          -0.0000177379       -0.0000006992       -0.3737992703
           0.0000039971        0.0000028021       -0.3738091415
           0.0000103715        0.0000073218        0.3737952137
          -0.0000032673       -0.0000078086        0.3737845263
           0.0000123876       -0.0000085633       -0.3737988562
vibration 7
           0.0000076763        0.0000063163       -0.0390947803
          -0.0000069518        0.0000018765        0.0458426061
           0.0000012765       -0.0000073916       -0.0849440035
           0.0000022418       -0.0000066086        0.0849446082
          -0.0000090720        0.0000024455       -0.0458446329
           0.0000061574        0.0000053409        0.0390962115
           0.0000113404       -0.0000010656        0.2625640349
          -0.0000166483       -0.0000055832       -0.3078817896
          -0.0000029835       -0.0000134295        0.5704559318
          -0.0000121632        0.0000024606       -0.5704582905
          -0.0000105971       -0.0000018047        0.3078863035
           0.0000152367       -0.0000041411       -0.2625662997
vibration 8
          -0.0000045541        0.0000033210       -0.0755109368
          -0.0000014485       -0.0000037433       -0.0716144804
           0.0000050918        0.0000039429       -0.0038955296
           0.0000038506        0.0000040792        0.0038967194
           0.0000010959       -0.0000064563        0.0716143589
          -0.0000068838        0.0000001514        0.0755096458
           0.0000068557       -0.0000188813        0.5071122429
           0.0000082074       -0.0000014563        0.4809461143
           0.0000020213        0.0000037352        0.0261644232
           0.0000072046        0.0000044655       -0.0261661565
           0.0000054097        0.0000037289       -0.4809460933
           0.0000042133       -0.0000070089       -0.5071078779
vibration 9
           0.2380942668        0.1351083541        0.0000059494
           0.2360632107       -0.1386259303       -0.0000150259
           0.0020223059        0.2737523510        0.0000008714
          -0.0020381187       -0.2737512072        0.0000117465
          -0.2360546767        0.1386323342        0.0000034637
          -0.2380856275       -0.1351156867       -0.0000064465
           0.2634101119        0.1494647887        0.0000047936
           0.2611616508       -0.1533592265       -0.0000476511
           0.0022308449        0.3028544655        0.0000235159
          -0.0022578230       -0.3028531634        0.0000453576
          -0.2611572196        0.1533579303       -0.0000193209
          -0.2634037646       -0.1494673571       -0.0000133464
vibration 10
          -0.2503770015       -0.1420676958        0.0000326184
           0.2482461735       -0.1457719246        0.0000035772
           0.0021321089        0.2878283610       -0.0000265995
           0.0021320347        0.2878287501       -0.0000138927
           0.2482463178       -0.1457725544       -0.0000124690
          -0.2503764075       -0.1420678116        0.0000357632
          -0.2518339898       -0.1427837585       -0.0001804027
           0.2496843870       -0.1465244721       -0.0001051241
           0.0021304865        0.2894455143        0.0001749157
           0.0021273684        0.2894460743        0.0000167448
           0.2496849871       -0.1465242542        0.0000798367
          -0.2518316492       -0.1427867306       -0.0002121717
vibration 11
           0.0000137513       -0.0000007335        0.0524672161
          -0.0000238390        0.0000086341        0.0568469559
           0.0000054385       -0.0000057944       -0.1093145542
           0.0000042229       -0.0000027315       -0.1093139044
          -0.0000210899        0.0000071355        0.0568475555
           0.0000162644        0.0000022147        0.0524680026
           0.0000286313       -0.0000262033       -0.2720222946
          -0.0000428271       -0.0000125155       -0.2947293567
           0.0000250077       -0.0000121009        0.5667493682
           0.0000399194       -0.0000113069        0.5667453526
          -0.0000302718       -0.0000055031       -0.2947318159
           0.0000420731       -0.0000362555       -0.2720263939
vibration 12
          -0.0000051760       -0.0000004072       -0.0959328285
           0.0000096195       -0.0000134456        0.0934047102
          -0.0000037927        0.0000172143        0.0025278106
          -0.0000026608        0.0000188783        0.0025291739
           0.0000089634       -0.0000153902        0.0934040731
          -0.0000020671       -0.0000016487       -0.0959331221
           0.0000083639       -0.0000246587        0.4973739649
          -0.0000152996       -0.0000415645       -0.4842667637
          -0.0000224925        0.0000180851       -0.0131049522
          -0.0000177210        0.0000198685       -0.0131134835
          -0.0000022548       -0.0000330499       -0.4842626765
          -0.0000087760       -0.0000006064        0.4973760872
vibration 13
           0.0982470131       -0.0304580845       -0.0000004182
          -0.0879725829       -0.0433362943       -0.0000039115
          -0.0060196126        0.1244248537        0.0000169131
          -0.0060159535        0.1244254318       -0.0000030879
          -0.0879704029       -0.0433360440       -0.0000147406
           0.0982455579       -0.0304566596        0.0000053723
           0.2865703782       -0.3492716313       -0.0000101068
          -0.2970573999       -0.3896306251        0.0000613838
          -0.0402047306        0.1360362955       -0.0000674265
          -0.0401956179        0.1360367511       -0.0000461255
          -0.2970536002       -0.3896289128        0.0000635295
           0.2865660027       -0.3492654881       -0.0000027691
vibration 14
          -0.0642072189       -0.0954164676       -0.0000131332
          -0.0770803507        0.0908141832        0.0000126319
           0.0906570589        0.0088601250        0.0000090223
           0.0906573461        0.0088579890        0.0000044542
          -0.0770819122        0.0908177997       -0.0000019214
          -0.0642088881       -0.0954197764       -0.0000100891
           0.0526412730       -0.3203625592        0.0000361602
           0.0122854961        0.2632639435       -0.0000072713
           0.5379386198        0.0064119442       -0.0000437680
           0.5379396494        0.0064113560       -0.0000448621
           0.0122861720        0.2632725095        0.0000089791
           0.0526414705       -0.3203701810        0.0000392759
vibration 15
          -0.0000012382        0.0000053683       -0.0766899413
           0.0000041343       -0.0000004997        0.0766899967
          -0.0000019713       -0.0000054698        0.0766879980
          -0.0000021398       -0.0000050968       -0.0766881105
           0.0000030083        0.0000019188       -0.0766892235
          -0.0000015068        0.0000032768        0.0766895539
          -0.0000012565        0.0000042316        0.4009849160
          -0.0000012181        0.0000016184       -0.4009859582
          -0.0000077538       -0.0000010662       -0.4009732759
           0.0000012806       -0.0000121428        0.4009732458
           0.0000053507        0.0000034344        0.4009820147
           0.0000001865        0.0000099073       -0.4009841983
vibration 16
          -0.0498414410        0.0878387643        0.0000050793
          -0.0511388350       -0.0870894858        0.0000004340
           0.1009874098       -0.0007465781        0.0000019398
           0.1009868580       -0.0007514305       -0.0000012992
          -0.0511429853       -0.0870856172       -0.0000037795
          -0.0498454528        0.0878346334       -0.0000023745
          -0.1952357527        0.3440404318       -0.0000072428
          -0.2003182471       -0.3411068459        0.0000062591
           0.3955232604       -0.0029314077       -0.0000121603
           0.3955207117       -0.0029358787       -0.0000066930
          -0.2003200728       -0.3410982573        0.0000139364
          -0.1952360273        0.3440285509        0.0000059011
vibration 17
          -0.0145233874        0.0263624525       -0.0000013031
           0.0176286314        0.0307285985       -0.0000012699
           0.0655187512       -0.0005053973       -0.0000003044
          -0.0655190464        0.0005065224        0.0000000214
          -0.0176294571       -0.0307279461        0.0000006189
           0.0145245015       -0.0263628542        0.0000007781
          -0.1299214772        0.2288838171        0.0000106381
           0.1568985754        0.2671118973       -0.0000078546
           0.5729651182       -0.0042487946        0.0000017889
          -0.5729657409        0.0042479382        0.0000133652
          -0.1569034960       -0.2671188160       -0.0000054944
           0.1299271003       -0.2288924235        0.0000049291
vibration 18
          -0.0289332647        0.0505907161        0.0000010346
          -0.0281528831       -0.0474854920       -0.0000017941
           0.0030793632        0.0004064004        0.0000005930
          -0.0030792209       -0.0004062647       -0.0000024294
           0.0281529395        0.0474845238        0.0000008887
           0.0289341456       -0.0505897726       -0.0000016401
          -0.2515368525        0.4432669347        0.0000172757
          -0.2444610477       -0.4162927050        0.0000087624
           0.0268917905       -0.0002262016       -0.0000013133
          -0.0269109867        0.0002264094       -0.0000021058
           0.2444632234        0.4162964624        0.0000047677
           0.2515410198       -0.4432722229        0.0000124706
vibration 19
          -0.0629602446        0.1109480566        0.0000064234
          -0.0645991349       -0.1100017234        0.0000028077
           0.1275653318       -0.0009445224        0.0000015678
           0.1275653445       -0.0009476431       -0.0000032086
          -0.0646030839       -0.1100001980       -0.0000032144
          -0.0629638134        0.1109461837       -0.0000043758
           0.1914084953       -0.3372756786       -0.0000273082
           0.1963896523        0.3343969736       -0.0000082610
          -0.3878121346        0.0028797474       -0.0000100132
          -0.3878138266        0.0028733422        0.0000099729
           0.1963785415        0.3343894223        0.0000173358
           0.1913968890       -0.3372656348        0.0000182735
vibration 20
          -0.0296757615        0.0522923673        0.0000018447
           0.0304483913        0.0518465817       -0.0000004209
          -0.0601257865        0.0004460692       -0.0000003107
           0.0601254778       -0.0004459427       -0.0000008193
          -0.0304483294       -0.0518466207       -0.0000010254
           0.0296759452       -0.0522925289        0.0000007316
           0.1992991635       -0.3511851514       -0.0000128093
          -0.2044863436       -0.3481890456        0.0000053585
           0.4037865278       -0.0029959139        0.0000013746
          -0.4037849344        0.0029939328        0.0000072931
           0.2044860452        0.3481898582        0.0000055163
          -0.1992997065        0.3511872029       -0.0000067331
vibration 21
           0.0990736761       -0.0759887038       -0.0000017963
          -0.0954823152       -0.0908007126        0.0000035331
          -0.0110352490        0.0850921223        0.0000011655
          -0.0110278202        0.0850915944       -0.0000047016
          -0.0954774300       -0.0908000341       -0.0000014491
           0.0990684987       -0.0759861204        0.0000024471
          -0.1663678866        0.4183046774        0.0000153533
           0.2089307959        0.4468757220       -0.0000039840
           0.0460349415        0.1075689194        0.0000036453
           0.0460191196        0.1075687706       -0.0000050913
           0.2089294492        0.4468669274        0.0000064832
          -0.1663651930        0.4182937998       -0.0000068664
vibration 22
           0.0215234750        0.1040331480        0.0000035282
           0.0363362205       -0.0905210014       -0.0000051326
          -0.1395545547       -0.0060702889       -0.0000002741
          -0.1395553608       -0.0060731048        0.0000022767
           0.0363349041       -0.0905263544       -0.0000007038
           0.0215230668        0.1040383686        0.0000014460
           0.2301931378       -0.2254221034       -0.0000096642
           0.2016203323        0.1498640956       -0.0000089615
           0.5409203171       -0.0130335015        0.0000020524
           0.5409215188       -0.0130333393       -0.0000095909
           0.2016272805        0.1498735773        0.0000053408
           0.2302009305       -0.2254314732        0.0000072449
vibration 23
          -0.1873894459        0.0780437502        0.0000010963
           0.1871141041        0.0702023738       -0.0000095614
           0.3156452973       -0.0036777617        0.0000005602
          -0.3156455910        0.0036857564        0.0000048099
          -0.1871224957       -0.0702088013       -0.0000001503
           0.1873981053       -0.0780504907        0.0000060640
          -0.0204667956       -0.2619232373       -0.0000133475
           0.0214332138       -0.2570619758       -0.0000170511
          -0.4285174768        0.0016015818       -0.0000030650
           0.4285174653       -0.0015867056       -0.0000072040
          -0.0214266580        0.2570851778        0.0000034298
           0.0204605586        0.2619467550        0.0000036751
vibration 24
          -0.0703629647        0.2727187636        0.0000093406
          -0.0778862644       -0.2729950214       -0.0000018244
          -0.0040056213       -0.1444580845       -0.0000000242
           0.0039953817        0.1444585589       -0.0000067928
           0.0778891838        0.2729897447        0.0000041985
           0.0703663210       -0.2727142109        0.0000006916
           0.2576346131       -0.2782110208       -0.0000099419
           0.2613821750        0.2791776334       -0.0000148773
           0.0027202334       -0.1707705972       -0.0000025777
          -0.0026968027        0.1707710245       -0.0000205254
          -0.2613688966       -0.2791716848       -0.0000076313
          -0.2576241258        0.2782076180       -0.0000109973
vibration 25
           0.0298871454        0.0169603689        0.0000000448
          -0.0296326151        0.0174019855        0.0000004933
          -0.0002551224       -0.0343501926       -0.0000003819
          -0.0002545255       -0.0343469708       -0.0000004206
          -0.0296261871        0.0173984265        0.0000000229
           0.0298834831        0.0169584736        0.0000003566
          -0.3538644352       -0.2008182971       -0.0000006480
           0.3508490014       -0.2060470715       -0.0000050329
           0.0030179572        0.4067182084        0.0000037729
           0.0030153645        0.4066824076        0.0000057898
           0.3507775462       -0.2060046129       -0.0000010679
          -0.3538213716       -0.2007936697       -0.0000041844
vibration 26
          -0.0390345760       -0.0205802367       -0.0000000765
           0.0369845638       -0.0198780282       -0.0000006596
           0.0029714392        0.0021262711        0.0000000415
          -0.0029719780       -0.0021337007        0.0000000214
          -0.0369826429        0.0198766891        0.0000001003
           0.0390420108        0.0205848699        0.0000005287
           0.4444178224        0.2503181379        0.0000007270
          -0.4193649643        0.2440709623        0.0000062484
          -0.0037381002       -0.0248162885       -0.0000002502
           0.0037393244        0.0249029288        0.0000002230
           0.4193458652       -0.2440587183       -0.0000010754
          -0.4445049313       -0.2503677820       -0.0000053464
vibration 27
           0.0186954539        0.0136270140        0.0000001565
           0.0217749808       -0.0156822654       -0.0000003917
          -0.0002407652       -0.0496891283       -0.0000004317
           0.0002401825        0.0496825078        0.0000005288
          -0.0217691802        0.0156792553        0.0000001340
          -0.0186973132       -0.0136273861       -0.0000002228
          -0.2296174947       -0.1339367655       -0.0000005602
          -0.2649037030        0.1590537569        0.0000038241
           0.0041095218        0.5746152362        0.0000055362
          -0.0041060202       -0.5745420575       -0.0000079964
           0.2648414871       -0.1590172631       -0.0000007285
           0.2296362195        0.1339461945        0.0000026265
vibration 28
          -0.0392102081       -0.0243393547       -0.0000001514
          -0.0364228733        0.0238978123        0.0000007548
           0.0039580485       -0.0026345136       -0.0000000585
           0.0039577494       -0.0026287540       -0.0000000471
          -0.0364250702        0.0238988341        0.0000000690
          -0.0392030195       -0.0243354353       -0.0000005402
           0.4438670356        0.2547939603        0.0000007255
           0.4148612047       -0.2471223063       -0.0000057434
          -0.0053077550        0.0289529976        0.0000002213
          -0.0053079367        0.0288887333        0.0000005762
           0.4148886332       -0.2471374230       -0.0000011188
           0.4437876193        0.2547487699        0.0000050220
vibration 29
          -0.0222859577       -0.0085723357       -0.0000000454
           0.0259375285       -0.0113541584       -0.0000004850
          -0.0005840601       -0.0517415215       -0.0000005637
          -0.0005834972       -0.0517483338       -0.0000004099
           0.0259431470       -0.0113575518       -0.0000000420
          -0.0222857219       -0.0085715284       -0.0000002403
           0.2303491871        0.1250658781        0.0000000707
          -0.2714134832        0.1540116908        0.0000038740
           0.0045384955        0.5742609686        0.0000055161
           0.0045361676        0.5743398555        0.0000084342
          -0.2714783908        0.1540495959        0.0000005857
           0.2303429644        0.1250614840        0.0000027887
vibration 30
          -0.0328438836       -0.0186387104       -0.0000000864
          -0.0325632124        0.0191234777        0.0000006431
          -0.0002805577       -0.0377735451       -0.0000003539
           0.0002798929        0.0377759676        0.0000002948
           0.0325686578       -0.0191267692       -0.0000000914
           0.0328463165        0.0186401419        0.0000004030
           0.3534836263        0.2006024884        0.0000004306
           0.3504613457       -0.2058197279       -0.0000048048
           0.0030166891        0.4065483964        0.0000040338
          -0.0030144941       -0.4065766653       -0.0000060829
          -0.3505235114        0.2058558786        0.0000007909
          -0.3535095449       -0.2006170684       -0.0000040031
